892
Properties=species:S:1:pos:R:3 Energy=-156.25001761 pbc="F F F"
H       -9.68319695       6.67513960      -8.14417632
S       -4.33453237      -0.74187669      -2.58441774
H       -4.33731167       2.13392002       6.16220504
H       -9.89336499      -0.47709602      -1.81165824
H       12.17701728       1.07108278     -11.02012895
C        1.83155745       2.32476203       8.79197506
C       -8.53126759      -3.21829514       7.22913304
H       -6.29255310      -5.92146458       5.12487550
C       -9.14134599      -6.64494120      -3.27987872
C       -8.58844583      -2.86197418      -3.19709369
H       -3.18044209      -4.15120730      11.65243786
H       13.66661801      -3.15946487      -2.83644008
H        3.29679658      -4.72914510      -0.81477192
H        9.22593904      -2.45364425       4.00030817
H      -13.94327634       2.87844755      -2.41163579
C       10.96111621      -0.73855807      -6.69199010
H        1.64870156       3.11028542      -5.95504809
H       -0.69193647       1.30823988      -9.75555826
N       -9.11528506      14.77686235       3.46396879
C        1.13303428      -3.06276263      -0.53599216
H      -10.87384702      13.58587999       3.32276456
C      -10.32225465       4.90818420      -3.25902669
H      -10.93861048      11.13443261       2.53511781
N       -2.97589035      -1.83742859      -7.76787263
C       -9.99117132       8.94299965       1.07857584
H        9.41692896      -0.88319654       8.79608210
O        7.85515091      -0.60975805       6.88962269
O       -0.94062634      -3.64308552       3.55066350
C        6.14236233      -2.10989536       5.23358743
C       15.36779824       0.75162837       7.02336591
H        2.59882479       6.12247528      -7.29356473
C       -0.47033264      -2.79027074       4.27680708
C       -4.82157625      -0.46539069       6.47957705
H      -10.66779218       3.70353288      -5.96246720
N      -13.86059312       2.27979532      -3.24229688
C        7.11694591      -2.05505152      -0.12640536
H      -11.24930782       5.29666064      -1.38126210
H      -12.50925055       2.68641076      -4.72598664
N       -4.67555331      -4.42219636      -4.27993949
C        2.87445794       4.76149803      -5.38423405
H      -10.72267161       2.33755645       5.73100029
H       15.53782055       0.66272301      10.62006670
N      -13.60236084      -1.02622224       1.80419177
H      -11.48791261       0.87648686      -6.31480132
H        0.74639347       1.87891698      11.98880834
H       11.83023601       3.12078073       0.41413936
O        2.96997999       5.96282195      -5.25241458
N      -12.81745186      -0.38021154       4.03361081
H       -9.91158236      -9.30907746      -4.58552353
C      -10.65244823      -4.66684592       5.76779669
O        3.95809749      -1.55067879       0.04552913
H       -9.59241023      -1.20534387      10.23975372
H       10.59391722       2.83805403     -10.92182956
C        8.19340523      -1.46843657      -5.72192612
H        6.75135397       0.58533990      -6.38216593
H        2.14761943       3.52275366      -2.90567070
H       -0.74264507       2.76477608      -2.49772001
C       -6.79754652       1.27437399       4.73402726
C       12.14026015       0.13811533      -6.33638687
H       -8.05893772       4.56899413       7.38027792
O       13.52492625      -2.58025195      -0.60176794
C       -8.15232486      -5.35371920       1.03475123
N       -6.51687677      -9.48382556      -4.27180984
H        0.72478072       6.29022073      -2.08513853
C       -1.62872587      -4.78518488      -8.06038998
H       -0.67749622      -2.29946578       8.97896301
H        8.61246228       3.20371372      -5.34281939
O        0.82891758       2.52812614       6.01254468
N       13.77319325       1.36099823       5.32015519
H       11.47363367      -0.28690246       4.88831908
H       -0.87116479       1.81538974       6.83109898
C       -2.20542286       0.32157409       3.44118949
H       16.00625240       2.81493637       6.67851140
H        1.02443381      -5.53973765      -4.73400396
C       14.59621523      -1.57511179      -3.94350483
O       -1.99200672      -5.51302732      -6.92173864
O       12.60477641      -5.51740995       3.01878086
H        3.85549528       5.39211831      -2.69968327
H       -4.12516655      -5.60232792      -6.70439471
O        1.50545998      -4.21013645      -8.35650285
H        4.62424193       0.66914259       3.41182217
H      -10.64940163       2.64415026       1.35019067
H      -10.24992378      11.63696642       1.02062616
H       -5.67199334       2.15769014      -1.79167748
N       -6.31869292       3.18219937      -4.73416448
C       -7.83131411      -9.96287235      -4.69152453
H        7.34711539      -9.12224598      -4.25367275
C        4.84893429      -2.94080741      -3.60496671
H       -5.60840421      -5.63351392       0.32387759
C        7.78166057       4.05495326       5.63102769
C      -11.64539460      -0.52707223       4.88185172
H       -4.85290830       0.99764926      -5.55953082
C       14.99519643      -1.79502618       1.83978753
H       -7.38155840       3.24862589       8.29567588
C        8.15263935      -1.75746465       6.63226591
N        4.22736754      -1.04628109       2.25018987
H        1.81720910       4.83701762       3.00082025
C       12.44214732      -2.20286770      -0.19741402
H        0.39048807       3.75536586      -8.61869271
H       -8.79527340       0.33810230       9.99398209
H       -0.71137559      -2.88636355      -8.55000716
H       -2.62335132       0.17632274       4.44037940
H       10.44305929      -0.51044409       0.67715153
C       -5.44964980       3.49121790      -0.16755430
H        1.11562070      -0.80741368      -3.63263844
C       -6.23079045      -4.95508496      -9.06959446
H        4.16865141      -8.15375467      -5.87167245
C      -12.68359326      -0.37416112       2.63286852
C       -2.24409242      -2.71845329      -1.14345766
C      -10.82328351       0.11411526      -5.91672802
C       -0.37417349       4.41462012      -5.12246737
H       -2.08768672      -1.01304590      10.35827677
H       -3.35178397      -2.11175240      -4.22896540
O       -8.53150955      -2.59028339       6.19191470
H       -5.82148772      -9.53686795      -5.03119979
C       -3.64559908      -3.96792115       4.62976935
N       12.84697501       1.60647594     -10.49187825
H        1.88363436      -1.74560450       2.49519239
H       -8.88372714       1.62977680       7.27013044
H       16.28339220      -1.39966510       9.35536286
H      -11.78651097       4.70105392      -6.87610008
H        3.49606074      -5.54950974      -7.48335243
H       -7.39582319      -5.39298275      -1.62784468
H       17.00239707       1.62897934       5.83483089
H       11.56673956      -2.51306355       3.19674198
H      -12.04625665       6.04781900      -2.76395035
H       -8.68986577      -0.80040185       7.45921890
S       15.77217362      -2.52643499       3.24365808
H       10.88609135       1.71391646      -0.04519913
C       -5.24616903      -2.20882375      -6.93895518
H       -7.23806126      -7.19449373       5.88503528
C       -3.54601349       6.58631123      -4.88443996
N       14.99244993      -0.81427087      -2.77391528
C       -3.06973028       2.16434455      -1.29009925
C        9.37840893      -2.39693800      -5.75443335
H       -8.31733904       8.98474004      -0.94571493
H        7.66769626      -0.71077431      -2.61608875
H      -10.46006111      -1.90202170      -3.62238555
N        6.65665014      -8.89618298      -4.98824114
C       -8.58436912      -7.59848743      -4.33127205
C        2.76929171       2.98481336      -2.20802972
C       -0.33946708       0.74030136      -8.91325753
O        1.74610245      -2.49575083      -4.32282929
C       -4.34985028      -2.03239576      -3.79522491
H        6.11892956      -1.67833033       0.12088613
C       10.76817496      -4.73195977      -2.97824435
C      -14.48190724       2.55796908      -5.58901264
N        4.42353830      -0.67985977       6.33993505
C       -9.61706045       6.63883341       1.84215034
H       -6.00295042      -9.53194178      -1.03526121
C        6.01719070       2.00288058       4.22628937
O       -6.71878523       0.55561279       8.76479822
H       -1.41046402      -0.60640955      -4.90114745
O        1.17091610      -0.40453965     -10.39667054
H        0.48380769      -1.55195564       6.79384611
H       -8.21841658      12.51889656       2.23876466
C       10.63893246      -4.15089902      -4.37687165
C       -5.60742363       8.31650109      -0.92447586
N        5.68614759      -3.93379709      -2.95355579
C       16.05574834       2.57056774      -1.63104054
C      -10.17411987       6.91171281      -7.20069187
N       13.23394348      -0.66524576      -5.79620449
H       -9.73495997       7.83166469      -6.81308873
O       -5.45424912      -7.53129648      -0.40898081
C        7.68450123       2.72671052       6.02105819
H       -2.22173107      -6.45483845      -7.13426349
H        2.16187590       0.22276104       9.13438408
H       -3.12298814       4.66830983       0.49412290
H       14.98802439       3.51321320      -7.92777460
N       -5.06552435      -3.48508203      -7.43113979
C       -8.69870338       1.96411020       0.79545341
H        9.39438554      -2.93698682      -6.70966737
H        8.32913141      -5.01410031      -5.67280876
H       11.82116490       0.80526813      -5.52486748
H        1.27278991       5.28524104       8.09157938
H        1.45519121       2.36686894      -8.38764499
C       -3.95497524       3.55241029      -5.35817717
O       -6.47566756      -3.50696445      -1.62005478
H        7.16707271      -8.79929204      -5.88001538
H        4.18816109       0.40696852      -2.90046370
C       -2.06492516       3.86097926       5.89948366
C      -11.09725974      -4.35809143       4.35870335
C       -1.17454206       6.78748047      -1.25031443
H       -9.92947909      -2.60635255       3.81465176
N       -3.61904313       2.08296520       2.64708236
H        7.02926645       3.62379135      -2.50131876
O        6.02630987       2.48825446      -5.29838227
H       15.77995534       5.23998912       1.63448804
H       12.43566502      -0.12338411      -0.62667412
H        3.32057475       3.87613355      -7.75418858
C       12.13640187      -3.65195395       4.90964166
H       -2.66017357      -6.86040242      -5.11685424
C       -8.45689605      -5.64970548       4.96742809
H       10.83380733      -2.82319505       9.61073374
O       -1.01868182      -0.37432667      -2.41264798
H       15.38275875      -1.43463130      -4.69974394
C       -9.18278005      12.38047831       2.74052722
C        3.60408983       2.28657151       4.26773203
N      -10.37180435       7.06049937      -2.07051520
N       10.18887679      -3.09105757       6.27278305
C       13.88779619       0.65230845       6.61974936
H       -1.65495819       0.79122591      -0.48379952
H       10.41251486       3.42699723       2.43939841
C        4.97224946       4.26691552      -4.15321224
H       14.73207161       2.10812990      -8.93600974
H        8.29516465       0.31013748      -8.85221553
C       -3.83805801      -5.52690587       6.42370330
H        3.40211372       1.34699100       1.85294516
H        6.62063921      -3.55728261      -2.81723974
H       10.69335505      -3.94587842      -2.22426575
H       -1.40944785       6.38253608       7.22482344
H      -11.78908189       0.08803717       5.77988264
H       -2.25796114      -1.71538775       2.76419867
O       10.39575612      -0.64373976      -7.76211381
N       -7.79895146      -6.25235791      -1.21816580
C       15.17110127       1.32539393      -1.59207032
H       14.11613704       5.18358626       3.35414039
H       15.63270212       3.29479662      -2.33559592
H        8.63612661       1.16201478       7.08650157
H       11.78378990      -4.66729644       5.15660234
H       -8.01598225      -5.19381146      -4.33212903
N       14.83088889       0.35578619       3.03929380
O       12.40108556      -0.81715043      -3.67513868
H        8.97439389      -3.19215346       7.94505389
C        2.28846935       1.84538060      -1.60214225
H        5.47577446       5.00606831      -2.16707290
C       -9.51696168       2.35388462      -1.80506501
H        2.31971245       3.14229379       8.24767741
C        7.63480843       2.31182642      -8.42265362
C      -13.73366549       0.91229737      -3.16019150
N       -9.23916259       9.34216519      -1.22727252
H       14.11924326      -3.62214559      -4.47891236
H        6.12542356      -3.24577581       3.37648039
C       12.60077336       1.51565616       4.59845630
N        1.55723835      -4.67406241      -4.83262833
H       -5.34659498       9.26259007      -3.91004958
S       14.26043439      -2.02853832       4.55602544
N       -9.28564701       7.67353936       0.99969422
O        3.71813052       3.34009705       4.86137081
H       -1.06233483       5.01513159       8.29082819
C      -10.12686002       3.05106614       8.29574069
H        7.66676506       2.28171712      -7.33467603
C        2.28424156       1.87184214       3.66019634
H       12.72815218       4.18390235      -8.42650341
H       -4.90325944      -0.48741921      -9.08541740
H        8.79857726       1.09483859       1.33008845
C       -3.05989865       3.58853645       6.99631730
H       10.74240273      -4.93343370      -5.13692447
H       -8.31606234      -0.89966805       4.45929591
H       -9.62003971      15.67740663       3.49901307
H       -3.72708159       6.70481067      -5.95719719
H        2.23026306       5.13748539       5.94339087
H       -8.78641193       3.62673294      -4.82979459
C       -1.01215455       0.36180574      -5.22313071
H      -14.69697889       0.76263185      -1.24515880
H        1.84253360      -1.72787768      -8.19381384
H       -5.40333713      -0.15339125       3.96135118
H       -8.17625491      -0.59706755      -5.14850805
H       16.39405085      -0.17633625       1.82819120
C        5.11829384      -4.59683549      -1.84440828
C        1.80236883       4.15718087      -6.25204296
N       11.78849819      -3.46764033       3.50798539
C        4.06574735       3.41204254      -1.97061087
H       -8.47976075       9.57048867      -4.53369944
H      -11.02950775       2.44002774       8.23797348
H       -1.41479595       6.88222234      -4.96174531
H        1.21166847      -3.81765413       5.06903428
H       -6.71645672       5.19737876       1.80528269
C        3.03714179      -5.70885760      -6.50106882
H        0.82198696       2.27130525       8.37029934
H      -10.18317315      14.03233215       1.78261326
C       -3.43838725      -8.55004509      -6.18436345
C        0.72637208       5.89514203       7.36413339
C        4.61152321       4.59975844      -2.69991655
N       -4.55816020       9.14867343      -1.18707043
O        9.23689433       3.69143069       0.81959328
H        0.87868929       6.94047812       7.65809117
H       -8.92615587      -6.45134376       4.38794969
H        4.97747637      -3.00676122      -4.69093510
N      -12.50534492      -4.81224268       4.19661828
H       13.27514174       5.09820613       1.92028126
C        4.86952875      -7.31938637      -5.75554537
H       -7.95112353     -11.00397610      -4.37076763
O        4.89477385      -2.02774580      -6.56163003
C       -1.22841972       0.42745534       8.42000549
H       15.34450222      -2.27638674       0.92393863
C       -9.78823749       2.89371223       5.80808688
H       14.03788719      -0.78849560      -6.41292003
C       -9.19955409      -4.20399075      -2.89471638
H       -3.21101474       2.63703361       3.39170023
C      -10.54647560       0.07295015       8.80884162
H        8.00597917      -5.03034204      -3.94320773
N       -8.72136651      -5.28449869      -3.58397612
O       -1.45446334       0.66349133       9.60786891
H        3.10052446      -0.94854819      -2.64217357
H      -12.24209702       1.18850182      -1.10020867
C       -4.71019736       1.33230351      -4.53304884
N       -5.90041464      -1.52584828       8.36304224
H       13.18580937       2.73311950      -6.36970474
H       -7.53276467       8.79480677      -3.26624706
C      -10.96400899      -2.85038228       4.07856022
O        1.43022209      -4.19881443      -0.22683255
H       10.98029807       5.89909744       6.67279630
N       -0.71707841      -1.45326547       4.11051110
H       -6.25784268      -6.33187150       2.63696706
C        0.55490055      -0.77193746      -6.79660870
C       -8.93817718      -9.07543755      -4.13748636
H        7.87441724      -1.64833683      -7.78622591
N        1.18022286       0.08796376      -4.12605891
H       -7.81526442      10.53255565      -3.20078877
C       -3.68543871      -3.17936073       6.89851746
H       -8.93234980      12.05236043       3.75547045
N       -2.69734484       3.74780059      -4.82537192
C       15.21540145       4.31134937       1.78140453
C        5.24228074      -0.88460612      -6.35391007
N       -8.42150932      -2.56970637       8.43151661
C       -2.12582403       6.11230501      -4.64173512
C       -5.43262533       2.09354776      -0.72370056
H       16.93046097       4.07603583      -0.34284450
C        4.90905454       1.05161383      -8.47916714
H       -4.32889406      -3.64074955      -8.13328106
C       -5.57990317       6.95914722      -1.55966051
C       10.01161210       0.77703175       3.04990780
C       -3.79664602      -4.49028371       7.33169831
H       -4.62267734       6.78922737      -2.05790292
H      -11.42445788      -0.75890784      -5.67379961
H       -3.30995881      -1.93579753       0.53351229
H       -3.92612541       8.96005548      -1.96011746
N       -8.36137573      -4.12629917       0.43081233
H       -3.29786487      -6.17253725       0.09921507
N       -7.46356193       5.64801159       1.26349340
H        5.04565817       0.90803157       0.07638365
H      -10.24063709      -6.66019829      -3.28605723
C       -6.63690860      -2.49256880       1.10264625
H       14.12729426       1.62485944      -1.41815727
O        7.80304398       1.88814502      -0.84290270
C        4.39984158       1.50254629      -0.54926323
C       10.12610300       0.92381208      -3.20973066
H       12.32011885      -0.18352318       9.15796066
C       -0.09945559       5.95604392      -1.47613966
H       -1.22939561      -5.03076970       8.83518583
H        3.80479359      -3.21118964      -3.40766982
H        5.34512053       5.16626661      -4.66477128
C       15.64883674       1.22935607       3.71975892
H       -6.45319309      -4.54329088       7.02961419
N       15.53544920       0.45935047      -0.48732147
H      -11.67091268       3.34441690      -2.01357972
C       15.29987721      -0.30753458       1.83383037
H        9.97735770      -5.45299077      -2.76991288
C       -6.20658028      -5.44324046      -6.62145694
O       11.04641079       4.99488507       7.04965053
H       -9.13390912       2.55087327       5.00634007
H      -10.42851388       4.09595646       8.23266698
O       -4.00131898      -9.62687208      -5.98322231
H       16.78587052       2.50532132       0.39646492
C        2.42354855       1.74825486       2.13150908
H        4.53510034      -0.02188814       5.55521886
N       -4.32202448       3.13196058       6.43934594
H       -4.57997380      10.10198351      -0.87612844
H        5.18287996      -0.71337204       2.20007813
N        7.41435273      -2.54336597       5.78422456
H        0.26311792       1.89270642      -4.33469684
H        4.03555921       0.48709839      -8.14941233
H       -8.33580352       7.73764322       0.57202529
H       -1.90176901       2.70993124       1.09035803
C        4.86785942       2.66100277      -1.12361813
C       -8.60290236      -4.72345159       7.20677503
H       -0.17985834      -0.74511026       4.62314739
C       -9.30465235      -0.47961310       9.47600289
C       -7.83857520       3.49805623       7.33155056
H       13.54643428      -0.38057593       6.50861077
N       13.16860794      -1.56336159      10.45553431
N        3.76857374       3.86345194      -4.85637621
C       14.96799204       3.64579823       0.43514768
H      -10.28637537       4.14674984      -7.62635811
H       -1.96353041       5.99134501      -3.56624141
S       -5.58810235      -2.94196552       2.45686222
N       14.63031501       0.36706473      10.29724048
H       11.74461224      -1.12891138      -1.89637098
C       -5.94541084      -9.87184341      -3.04179135
O       -6.54069094       8.62862829      -0.21300204
H       -1.19543216       7.77602906      -1.67990015
C        6.17741173       0.19769882      -8.42692915
H        8.70613592       3.13224533       0.20283184
H       -3.94282291       0.98301743       0.20281083
O      -11.33495563       9.95410361      -0.57642037
H      -13.43367933      -0.81673594       0.82009538
H        6.02495748      -9.70654399      -5.08415629
O       -7.23527796      -5.74791775      -6.05654197
H        8.21837069       3.07489477       3.37063958
H        6.57965523      -6.81712380      -4.54649533
H       15.87425322      -0.20188192       6.83510934
C       -9.23335071       9.96539076       1.91726962
O        8.81573835      -5.01079272       4.41604814
H        8.42908165      -1.14615355       2.10607090
O       -0.20590784       0.31189201       1.45701807
H       -9.95484056      -2.78745268      -0.79269566
C       -9.46877309      -1.99110383      -4.08535599
H        1.26691733       1.54813579      -1.75501323
H       15.48509587       0.96506914       8.09187742
C        8.30282421      -2.21451952       2.09853210
O       -9.01528512      -0.78938147       1.52122672
C        0.40269989      -3.17264972       5.44028551
H       -4.22910551     -10.19120049      -4.04905905
H       -9.06030066      -9.28133026      -3.06941722
H        9.51042873       2.96728172      -3.00053865
H       11.74712897       1.48111562      -7.96842455
H       -6.37449826      -4.37458998     -11.15841869
H       -0.16282151       5.06859601       4.32110741
C        3.10833445       1.09752306      -0.79138359
H       -6.12212039      -2.46852795       8.02588887
C       -3.51216794      -7.54037563      -5.05995741
H       13.91814970      -1.96372643       1.89639756
C      -11.06675033       5.81478885      -2.32764920
H       -9.68556478       2.89134503       9.27984864
H       13.09135257      -4.41778620       0.71766541
H        2.79155445       1.35428095       6.36652458
C       15.20638444       0.54438829      -2.88047126
C       -6.24080584      -3.31949216      -2.79266463
H        5.37365359      -7.23180464      -6.72460127
C       14.42836168      -3.04432046      -3.60789830
C        8.88774347       4.80666875       5.94985744
C        5.88775469      -7.65673045      -4.67630234
H       -8.50508690       5.92069586      -2.98661921
O      -11.39993858       0.54575160       9.56031177
H       -2.33907455       0.91014372       6.66647848
H      -14.58238460      -0.88632140       1.99663859
C       -6.44663223       1.19846628      -0.01944488
C       -2.50377217       2.58004098       8.02087552
N       -9.81371475      -1.89055614      -0.29236801
O        2.35815235       1.44148039      -5.52869945
H        2.90749030      -3.62838454      -5.98487468
H       13.24015636       1.14847171       7.34677230
H       10.53471241      -0.64397147       7.47797539
N       15.48443882      -1.84499792       9.77675001
O        2.78260852      -1.77302215       4.60470380
C       -5.47415643       3.86063637       6.62939534
N       -0.18114685      -1.95700845       1.20198465
C       -3.51665072      -2.06603722       7.88183279
H        3.85701363      -1.21258401       3.17863819
C      -10.41091582      -0.71729317      -0.88089530
C        5.56028434      -3.16183641       4.30283939
H        4.71180533       1.41940351      -9.48608014
C        1.42597260       3.42240721      -8.65608503
H       11.87284814       1.66521765       1.41965579
C       -1.21902588       2.78487257       0.23749686
C        6.48683801       1.89101749       5.67897115
N       -6.63488970       1.82800940       5.98614907
H       10.59286133       2.52621372       7.73657869
O       -3.48693169      -3.63584873     -10.07735512
O       -3.94018483      -2.29042259     -10.54176063
C        1.36775596       3.89386467       2.67690227
C       14.22388645       2.79794438      -8.25495399
H       -8.11796011       3.75706295       3.01871454
C       -6.06922644      -6.62072505       0.49601411
C       -7.25584698       5.88303161      -0.07312079
H       -3.98927076      -4.16453176       1.32520114
H       -6.87266053      -3.12710673     -10.03326849
H       11.34007060      -0.56970151      10.55338494
H       -9.63367936      -2.49636573      -5.04291320
H       -5.18079834       6.03054034       0.33670791
C       15.97618763       1.86118566       6.14039783
H        1.03100896      -5.16353546       7.52534367
O      -13.45380607       0.24001613      -4.13196079
H       -7.60592236       1.64453253      -2.37054615
H        8.66497549      -5.96976745       4.27662273
C        1.09256839      -0.97122108      -8.04338700
H        3.92085047      -3.21260586      -0.86340915
O       -8.33414538      -5.53219243       2.22263993
C        9.39939085      -1.37194117      -0.94100455
H       -1.60794461       1.70119002      -7.49453103
H        9.11004252      -2.80773237      -3.69415353
H       -9.97990463       7.19104954      -1.10601298
O       -8.14935925       6.07113587      -0.86949255
H       15.35447217      -3.46774984      -3.21952949
C       13.64435900      -3.60218079       5.07212386
C        9.92389592       4.26394423       6.71046004
H        0.13797437       1.28104376      10.54744411
C       -5.81747082      -7.04074456       1.93583978
C        1.24348948       5.61566961       5.93505245
O       -6.24400075      -1.87208385      -6.33251477
H        3.18184357       3.68209741       1.48924733
C       -8.34690309      -1.11824392       8.45931580
H       -5.35073696      -7.09706995      -1.29023289
O       -4.26399513       3.92141094      -6.47087052
H       13.93692482      -3.77627509       6.10946814
H      -10.22933095       0.12071791      -0.20680748
N       -4.10496068       1.53579276      -0.64681290
H      -10.47593943      -4.91910678       3.64228802
C       -8.85765479      -0.60351243      -4.29300178
O       -2.97385637       8.41722055      -3.50936091
H       -4.20461611      -3.68761766      -2.42191205
H       14.11044613      -4.37331362       4.45343671
S       -6.95100958      -2.73193582       3.97716350
C        6.46210691      -0.28260094      -6.99325883
C       -9.98053772      11.29221660       2.02633108
S      -10.03362806       0.72058320      -4.46719010
C        1.31307425      -3.58639462      -4.02863270
H       10.31790680       2.74085433      -5.34373040
N        1.00841975       1.57143810      11.03947898
C       -8.67684508      -7.05501770      -1.90394328
H       -7.57608928      -0.68751480       2.88588758
C      -13.56029864       4.48799500      -4.28854325
N        0.78435438      -2.70949516      -1.82176367
H       -0.89305922      -4.77923116       6.10183169
H        5.99980512      -0.71450133      -9.02065679
H       -1.92812851      -1.74886389      -1.48422289
H       -3.76130749      -6.07783561       4.36355089
C       12.11070436      -4.20554757       1.15434747
H      -14.22794335       3.05142806      -6.52749017
C       -0.85395290       0.94997384      -7.65618127
H        2.72776919       2.78023920      10.70428058
C        1.22656875      -4.10076578      -7.17976176
C        0.46993827      -3.74913919      -2.78925712
H        6.69557163       0.83951829       5.89901705
H       11.16781220       1.12037257      -3.46167624
H       -6.73752120      -1.35600297       6.22934534
C        3.03069014      -0.76723483       6.73722558
H        6.91723209      -4.68208192       0.29256186
H       16.50243731       0.13187648      -0.48054220
C        2.29752732       0.45246343      -4.83325919
H      -11.93285238       0.50472483       1.01032419
N        0.51613154       4.80356952      -6.10114293
C        9.35857551      -2.40567812       7.27649317
H        2.35541608      -6.55602839      -6.62619178
H       -4.73752225       3.16218673      -3.43140578
H        8.95770086       5.83012339       5.62748786
C       -8.80318680       5.37023065       1.74959103
O       -6.21827637       5.27828890      -3.85216679
C      -13.91722831       0.25885460      -1.82388704
C        8.49122861      -4.31478170       3.26247653
N       10.23017120       1.24124513       4.32474497
H        6.38457736      -6.21269226      -1.85692856
H        0.73542161      -4.70457253      -2.31319378
H       -4.36239235      -0.18453880       8.52811366
H        0.20566151       5.32970281      -6.91899480
H      -10.26485345      10.10419917      -2.83927100
H       11.93889564      -2.54317094       8.29103322
C       12.38220688       2.78919549      -9.90447439
H      -12.57647007      -5.83600511       4.29981257
H       -5.81175138       7.89888464      -4.83494262
H        0.72317806       4.01870035      -1.16775134
H        0.23207787      -4.89525491       9.79218466
C       -5.82888880       5.86695687      -0.53641583
H      -10.77972880      -0.10814687       4.35908475
H      -12.89169379      -4.54092973       3.27860721
H       -3.33260457       2.17590925       8.61151091
C      -10.72802428       4.50553068      -6.69736113
H       -9.75704795       4.34282722       3.38468793
C       13.64521406       2.03131817      -7.07477285
H       -5.39429168      -5.65659090      -9.15923463
H       -7.49683246      -7.49714688      -4.27216138
O       -5.38464541       3.65878416       1.03116440
H        7.67304122      -5.99166314       2.22460622