63
Properties=species:S:1:pos:R:3 TIP5P=T (H2O)21=T energy=T -935.3950=T kJ/mol=T pbc="F F F"
H        3.17996138       0.38931332      -1.97949716
H       -1.78326416      -0.24206229      -2.41219925
H       -2.64595815       2.50060162      -0.08030223
H       -3.26776452      -1.87064518       0.14345347
H       -0.56446049       0.08656854       0.89275792
H       -4.71938013      -0.19095527       1.02890358
H        0.35962655       1.71495856      -0.40171118
H        2.33388509       1.73970934       2.11419514
O        1.95014917       1.52123800       2.96345886
H        1.05546493      -2.65960653      -2.30607733
H        4.60281723       0.27369155      -1.47550507
H        1.08650335       1.51618609      -3.40357236
O       -0.67051695       2.24071425       2.99921566
O        2.18703227       0.12235992      -3.40068383
H       -1.54237571      -3.50354252       0.46440698
O        1.34974064      -3.48443698      -0.76617142
H        1.85746514      -0.26002636       3.22475276
H        0.45585720      -2.08135512       3.19133214
O       -1.53157561      -0.20103983       2.24914606
O        0.79347910      -2.08052768      -3.02180280
O       -2.81725871      -2.58029617      -0.31444590
H       -1.73495963       4.36034821       1.05210671
O        0.46016669       2.22931390      -3.27954425
O       -1.37806899      -0.95741812      -1.92198017
H       -1.21947169       3.06054043       1.63233694
O       -3.25034919       1.93185141      -0.55723672
H       -0.49184347      -2.94925807       3.99164652
O       -1.46221697       3.47667149       0.80520847
H       -0.91556193      -0.52473353      -1.20427334
H       -2.84433315       1.81697345      -1.41641416
H       -2.43846290      -0.29309218       1.95706105
O        1.90461140      -1.20673779       3.09153664
H        2.07850464      -2.07564696       0.00282010
O        2.98822400       2.27374554       0.64007766
H        1.68107796      -0.67297832      -3.23431330
O       -0.41736364      -2.47253467       3.16495468
H       -1.07499351       1.37415117       2.95799688
H       -0.09879492      -1.81392201      -2.80044264
H       -2.40970962      -2.15752680      -1.07035702
H        3.36321257       1.60612561       0.06570927
O       -3.79537946      -0.28658324       0.79801424
H        2.50927048       1.96546295       3.60085935
H        2.58033875      -0.01914398      -4.26179852
O        3.69704928       0.34809783      -1.17503882
H       -0.01826490       3.17349832      -0.25421536
H        0.55865334      -3.60796714      -0.24162111
O       -2.04325413       1.42993676      -2.96725459
H       -1.16928514       1.78650645      -3.12621401
O       -0.72260311      -3.83985993       0.82647786
H        0.26956977       2.06509063       3.03952866
H       -0.63842440      -3.40446915       1.67475886
H        0.66897754       2.58457543      -2.41558874
H        1.74782143      -4.35390329      -0.80850180
H        2.25697832       2.63692735       0.14046724
H        2.88121412      -0.79385206      -0.06466699
O       -0.06015411       0.15632331       0.08217715
H        0.73988307      -0.34038985       0.25378248
O        2.17325793      -1.21903814       0.41932338
H        2.19105472      -1.30738192       2.18376308
H       -2.53112565       1.62478416      -3.76740939
H       -1.33974807      -1.02372231       2.69928778
O        0.64503036       2.59822013      -0.63543215
H       -3.60525877       0.47405476       0.24890969
63
Properties=species:S:1:pos:R:3 TIP5P=T (H2O)21=T energy=T -935.3950=T kJ/mol=T pbc="F F F"
O       -0.63905590       3.50583180      -1.38133395
O        2.54507601       2.49540469       1.79792876
H       -0.23181695       0.46321948      -3.73227355
H       -0.44347394       0.59452001       3.39366246
O       -3.57885177       1.03106959       0.77097562
H        1.34859966      -2.91344293      -1.75528644
H       -2.03272146      -0.78363828       2.86310738
H       -2.50616452      -0.89555081      -1.74534092
O       -0.67177203      -0.26822054       3.73977017
O        3.57848342      -0.97619186      -0.57532822
H       -2.62857938       2.42015356       0.86716205
H       -3.37346378       0.63827703      -0.07741203
H       -1.81381619       2.24909167      -3.87547582
O        0.36289424      -2.30614993       0.96691073
H        4.50557469      -0.06678336       2.12527125
H        1.15406340       0.16436811      -3.20131337
H        2.18834494      -1.96874127       3.84358595
H       -0.65702616       2.44625710       1.92878031
H       -3.46097760      -1.22242328       3.10692556
O        1.71212568      -1.48979005       3.16531404
H        2.98173437       1.64595198       1.86110634
H        0.27872292       3.47645267      -1.11105493
O        0.16498683      -2.70360235      -2.93480133
H        0.12770320      -0.78538074       3.64170633
H       -3.38811945       0.34170775       1.40708353
O        3.58090799      -0.02572626       1.88126786
H       -0.97160907       0.08900259      -0.41374003
O       -1.39358793       1.72025314      -3.19726504
H        2.31830198      -3.96371146      -1.25678006
O       -0.13272685       0.12278238       0.04600705
O        1.81415090       0.74281573      -1.63303787
O        1.99888532       3.25080874      -0.67890085
O       -2.01400309       3.14960395       0.94734911
H       -0.00186250      -0.76752208       0.37229576
H        2.35852663      -0.88634847       2.79890456
O       -2.20498765      -3.04723481       0.70267269
H       -0.03600087       1.19711689       1.34067187
H       -3.01833975      -3.25148637      -2.27831881
H       -2.54677121       3.87841273       1.26551214
O       -2.84316488      -1.01062018       2.40715507
H       -0.73923070      -2.71777404      -2.62107905
O       -0.01021050       1.76461744       2.11106776
H        0.97749027      -2.74409529       0.37809206
H        1.67241899       2.34425289       2.16104678
H       -1.05485798       2.35922215      -2.57019848
H        0.83347595      -2.23818422       1.79767265
H       -2.60555393      -2.36415751       1.24043090
O        0.48434127      -0.16838539      -3.79879074
H        2.60359646       3.94957155      -0.92847411
H       -1.26830724      -2.98019180       0.88805577
H       -2.32907098      -2.88765798      -0.98046186
H        0.25460669      -1.85600375      -3.37043504
H       -2.22310790       0.53479082      -2.15264543
H        3.12517459      -0.33595691      -1.12381902
O        1.95802724      -3.10330349      -1.04199630
H        3.11818297      -1.79967050      -0.73731052
H        2.21473166       3.06139803       0.23420691
H        3.55167682      -0.37727791       0.99144270
O       -2.35078670      -0.02250443      -1.38495281
H       -1.13234583       3.41435519      -0.56614752
O       -2.36073160      -2.66145815      -1.91001180
H        1.10563507       0.55131722      -1.01857430
H        1.99672661       1.67384318      -1.50620792
63
Properties=species:S:1:pos:R:3 TIP5P=T (H2O)21=T energy=T -935.3950=T kJ/mol=T pbc="F F F"
H       -1.40444265      -1.68162060       2.93045973
H       -3.03434510       3.25354368      -1.82561617
H       -2.73859816      -1.12086197      -0.42370543
O       -2.71956628      -1.91325189      -2.02817361
H        0.31196124       0.17093098      -1.76217160
H        3.55264224       0.16377407      -0.86588907
H       -1.90096783       2.61481998       3.79767203
O       -1.86907727      -2.31661500       2.38536467
O        1.45847845      -2.23409529      -2.96962341
H        1.11905714      -1.01924194       0.52223574
H        0.75458189      -2.77299520      -2.60858551
H       -0.79562557      -3.30956900       1.38536593
O       -2.41580006      -0.65439469       0.34729491
O        1.95135270       2.37878469      -2.32535800
H        1.04510502      -1.39031807      -3.15236439
H        3.72083708       2.11479096       2.24737310
H       -1.01886800       0.42254076       3.68594364
H        0.18332868       0.97905812       0.36188709
H       -2.37812160       1.89287424      -1.92483611
H       -0.12689204       2.39275543       2.09468534
O        2.96652939       1.62596620       1.91828027
O       -2.24756024       0.59778551      -3.01665814
H        0.20801905       3.42707512      -0.07437896
H       -3.42547817      -2.45146918      -2.38628307
H        0.99497982       0.93597651      -2.87576316
H       -2.54609429      -0.25851716      -2.71030049
O       -0.13179728      -3.66606393       0.79504804
H        1.93269073      -1.09432598       2.58349447
O       -2.42257418       2.67335087      -1.37246664
H        0.21060420      -0.44995425       3.82395004
O        3.32673590      -1.57512851      -1.21490937
O        0.07640602       3.67134856      -0.99047958
H        2.42176487      -1.76004411       0.30762000
O       -0.74369985      -0.46995763       3.89561235
H       -1.94650774      -2.47657577      -2.06393031
H        2.34402208       2.99450411      -2.94417316
H        3.06058188       1.55108468      -1.21964189
O        1.67926195      -1.69276114       0.90794846
O        0.44196439       2.34306673       1.32646321
O        3.61677399       1.08067927      -0.59867416
O        0.39440971       0.20815048      -2.71508755
H       -3.12572324       0.88164748       0.85518503
H       -2.41229109      -1.31277454       1.04210099
H        1.32747091       2.29258280       1.68640962
H        3.21865870       1.36286181       1.03315953
O        1.88787673      -0.46521128       3.30352102
H        2.71500928      -1.82142752      -1.90870990
H       -2.44603451      -2.77842554       2.99370931
O        0.06535721       0.14644246      -0.09534999
H        2.30893791       0.32286550       2.96019271
H       -1.31170351       0.48119921      -3.18040080
H       -0.84384248      -0.09658089       0.07937101
H        0.64567087      -3.13187956       0.95759701
H       -2.93523200       2.28137088       0.31077463
H        1.30752895       2.89920913      -1.84485698
O       -0.60518126      -3.57438925      -1.79449988
O       -3.18950498       1.80457961       1.10086778
H       -0.44300547      -3.58036072      -0.85115731
H       -2.19216896       1.96347519       2.46243907
H        4.11509713      -2.08641436      -1.39740649
H       -0.66476597      -4.49932235      -2.03362379
O       -1.52038501       2.03171422       3.14087965
H       -0.81726775       3.39080647      -1.18764746
63
Properties=species:S:1:pos:R:3 TIP5P=T (H2O)21=T energy=T -935.3950=T kJ/mol=T pbc="F F F"
H        1.73793302      -3.89519216      -2.11473300
H        1.88580512      -2.12321180       1.79290271
O        2.93849831       1.71454583       1.71308527
H        0.02641309      -3.09111663       2.27348764
H       -4.81151870      -0.24430366       0.39655873
O        1.35642444      -3.07255950      -1.80820638
O       -2.81429649      -2.12573542      -1.50157762
H        3.36499815       1.26828952       0.98152186
H        2.28016710       2.27453415       1.30169138
H       -1.02856081      -4.12337129       2.61020057
O       -1.64284236       2.50286269      -2.46190043
H        4.75096190       0.48527426      -0.79424093
O       -1.47290026       3.05865038       1.83000177
H        2.85056682      -0.89905453      -0.04180286
O       -1.15878720      -0.13589140      -2.26902559
H        0.19758644      -0.70862242      -3.25597395
O        1.61430295       0.26249751       3.49634899
H        2.10267000       0.41961928       4.30445926
O       -0.97578713       1.08590697       3.51202697
H       -0.77616374      -0.01164630      -1.40046685
H        2.04065692       0.39859952      -3.06863866
O       -0.84560288      -3.39300764       2.01916149
H       -2.31035053      -1.49136010      -2.01132095
O        2.57984100       1.16862537      -2.88815994
H        1.26605992      -1.74412047      -2.97668303
H        3.40134006       0.85856949      -1.36962493
O        1.10398121      -0.93595617      -3.46333773
O       -3.86881886      -0.31048126       0.24434380
O        0.77202633       2.61059225       0.39921107
H       -1.67438378      -1.81832933       2.00479530
H       -1.39096936       0.31566702       3.12397289
H        2.01818435      -2.07059560      -0.51775050
H        0.50585443      -3.32232477      -1.44712496
H        0.44182376       1.72105042       0.27306260
O       -0.06616919       0.12108217       0.12557597
H        1.45280089      -1.48801175       3.09709726
H       -0.74868110       2.83725336      -2.39196929
H       -1.75413694       3.81511814       2.34468060
H       -2.66057804      -0.80704298       1.46017068
H        2.10137634       0.74010393       2.82487043
O       -3.11820149       2.20343045      -0.17042957
O        1.49517114      -2.32912317       2.64215971
H       -1.66175333      -3.34085911      -0.97295586
H        0.08044832       3.05616019       0.88851764
H       -1.48703357       0.72961600      -2.51271210
H       -0.66510272      -0.19646471       0.80135289
O        3.81758989       0.50611873      -0.58302059
H       -3.30093441      -1.59470472      -0.87116366
H       -2.56304888       2.53029676       0.53752229
H        1.51775298       2.54099037      -2.51065896
H        1.00821934       3.21964485      -1.25698485
H       -2.02730450       2.99557115      -3.18692393
O        2.08087673      -1.42173771       0.18316671
H       -0.05124619       0.84900236       3.58504818
H        3.07009409       1.31334464      -3.69744362
O        0.89655493       3.20314075      -2.20750603
H        0.69676924      -0.45315186       0.19199941
O       -1.79332335      -0.87985623       1.85866706
H       -1.33972977       2.36497411       2.47599766
H       -3.59814372       0.58082619       0.02403076
H       -2.61499213       2.37156362      -0.96713744
H       -0.90698845      -3.72844669       0.28083880
O       -0.89853774      -3.83310461      -0.67058495
63
Properties=species:S:1:pos:R:3 TIP5P=T (H2O)21=T energy=T -935.3950=T kJ/mol=T pbc="F F F"
H        1.63096128       3.20999181       1.35599817
H       -1.90783207       0.80186938       4.36861964
H       -1.42619098       0.81977518      -3.32169436
H        3.67288846      -0.46929033       0.45439821
H       -0.85068050      -3.06793584       0.01276558
O       -1.49340407       2.30991142      -2.55412415
H        1.54696749       0.85670484       2.64613590
O        1.78945016      -2.78517306      -1.88408599
H       -3.14105365      -1.13661115       1.49657933
H       -2.88930351       0.84084750      -0.04723499
O        3.16223740      -2.19195955       0.30806366
O       -2.72562870      -1.29833080       2.34363347
H        2.67436266      -2.35411645      -0.49934901
O        0.88836925       3.29546484      -1.70318263
H       -0.66079449       2.73972850      -2.35854704
H        0.70022190       0.18149621      -0.45215723
H        1.47188129      -0.80499041      -4.54131089
H       -2.11240544      -2.01425966       2.17739586
H        1.69137161      -2.11556367      -2.56101707
H        3.26028280       0.64031180      -0.48923035
O       -3.81484198      -0.67978860      -0.09526032
H        0.22146874      -0.62463661      -3.70714296
O        1.51512473      -2.48320420       2.45026159
O        1.84452358       0.79082767      -1.53533725
O        2.74394194       2.06537317       2.12357588
H       -1.41780390       2.33138597       2.59858593
O       -1.37172208       3.01463403       1.92979568
H        1.42133913      -1.56557861       2.70599460
H        1.63444392       1.69918368      -1.75210378
H       -2.34800590      -1.20469805      -2.84590679
O       -0.00202876      -0.15425173       0.10493267
O        0.91503947       0.14216416       2.56657183
H       -1.37575960       0.81892683      -0.02275007
H        3.44671968       2.43391802       2.65884215
H        3.90033626      -2.80014903       0.26872577
O       -2.12292924       1.41109555      -0.10822267
H       -3.50148938      -1.14670568      -0.86987662
O        1.00254657       3.76188254       0.89044107
H       -0.04565949      -3.01644381       2.10179085
H        0.89635590      -2.95772519      -1.58602518
O       -1.42203750      -0.01679011      -3.78685359
H        0.17441354       0.41539603       3.10791222
H       -2.03033389      -2.31447714      -1.86643241
H       -1.84103603       0.17325828      -4.62623055
H        0.35503266      -0.11324776       0.99209537
O       -1.53062387       0.77890480       3.48917752
O       -0.64715908      -2.56020389      -0.77274007
H       -4.76823252      -0.68654408      -0.18030552
H       -1.06509949      -4.12894304       2.22419477
O        1.16431402      -0.77340015      -3.63542113
H        0.17134388       3.61146075       1.34067125
O        3.78660872       0.46702673       0.29127279
H        0.86390300       3.47269775      -0.76285198
H       -2.00485571       0.07736500       3.04288399
H        1.26287912       4.08826820      -2.08715794
H        2.13113287      -2.46645556       1.71781002
H       -1.81348844       2.63643780       1.16950499
H       -0.45184265      -1.68168434      -0.44672361
O       -0.92177517      -3.27513524       1.81590295
H       -1.89406857       2.16182349      -1.69752053
H        1.79150408       0.32634781      -2.37060920
H        3.19562510       1.54012646       1.46302304
O       -2.76000541      -1.81904757      -2.23840130
63
Properties=species:S:1:pos:R:3 TIP5P=T (H2O)21=T energy=T -935.3950=T kJ/mol=T pbc="F F F"
H        2.77185355      -1.85595832      -0.12165154
H       -0.35431960       0.83671362       0.54543047
H       -2.39936248      -0.51294414      -2.45906813
H        1.22483381      -3.72947812       2.69365993
O        1.26940483      -0.88969572       3.68059752
H       -1.49365314       0.57395391       4.72364819
O        1.15746580      -3.00623681      -2.44653751
H        2.06827238      -2.97433081       0.61734218
H       -3.30856040      -0.34147949       1.68927223
H       -1.68673908      -4.10640302      -1.93140216
H       -1.78803730      -0.08745262       3.39407136
H       -3.53452526      -0.22263227      -0.63324198
H       -1.31327467      -2.68484404       0.05195992
H        0.44164804      -0.42369080       3.79845314
O       -1.05534657       3.09312654      -2.04755846
H       -0.41497317      -2.61665076       1.26863542
H        3.57392867       1.30042941      -2.96239960
O       -1.41063373      -3.23472496      -1.64825017
O        1.09481188      -2.99212084       2.09731240
H       -2.35052925      -1.49929282       1.87241095
H        1.71792108       3.18343567       0.44616056
O        1.71721379       3.19465225       1.40329458
O       -3.84613749       0.31159009       0.09733048
O        2.82686643       0.91691259       2.42112550
H       -0.48153313      -0.64764430       0.27637014
H        2.86689828       0.36544843      -0.83944750
H       -3.13845954       1.93015290       0.02414741
H       -2.59291372      -1.90091821      -1.88638925
H        2.26344561       0.54280953      -2.98566892
H        2.97987253       0.49514675       1.57558747
H        2.04621433       4.06359479       1.63335838
O        1.26815585      -0.60627555      -3.73647093
H        0.09796224       2.56440174       1.81006614
H       -2.04334586       2.64587324       0.78596471
H       -0.54537113      -3.11783647      -2.04053776
O       -0.89366717       0.44824828      -2.56339980
H       -4.79812212       0.32201164      -0.00190913
H        0.38752007      -0.27051187      -3.56921302
O        2.51887706      -2.77549546      -0.20342074
O        1.54631782       3.26537301      -1.24642401
H        1.59855409       0.01468356      -0.09100764
H        1.60825544      -3.72011927      -2.89752795
O       -1.09523666      -2.13130887       0.80181997
H        1.26673028      -1.48418742      -3.35502559
H       -1.41118817       3.81713634      -2.56274620
H        0.63743112       3.23522623      -1.54516802
H       -0.56459061       0.35533072      -1.66936021
H       -0.79670328       1.64024288       2.60843899
H        2.48637582       1.78347519       2.19893811
H        1.87697490      -0.22261645       3.36107334
O       -3.04541751      -1.06857267      -2.02303869
H       -1.00517209       1.39159782      -2.68125627
H        1.62918908      -2.90916587      -1.61932156
O       -2.63393369       2.74345732       0.03902750
O       -0.08398411       0.15253853      -0.06698688
O       -0.67106374       2.00005978       1.73038527
H        1.21731039      -2.21639284       2.64455278
O        2.54868858      -0.09845291      -0.06499933
H        1.97831280       2.55452628      -1.72003682
O        2.78670781       1.13363099      -2.44404311
O       -2.88125627      -0.87119221       2.36236023
H       -1.63719210       3.02877047      -1.29023031
O       -1.11783291       0.41448662       3.85787618
63
Properties=species:S:1:pos:R:3 TIP5P=T (H2O)21=T energy=T -935.3950=T kJ/mol=T pbc="F F F"
O       -0.13021689       0.06113284      -0.11880621
O        1.89014431       0.15811863       3.23911248
H       -0.93730271       0.18949076      -3.55830837
H        0.78956399      -0.14053458      -0.29075159
H        1.06300393      -3.09897857      -1.99769873
O        2.18296092       2.57362119       2.23022157
H       -1.57303450       2.58561342       2.27424994
O       -3.32269063      -1.94625189       0.54377608
H        1.05568883       0.60407858      -4.65255642
O       -1.33483810      -2.85727258       2.17897955
H        1.49802992      -1.19050208      -3.20241034
H       -3.57792286       2.31196306      -2.23225105
H       -1.09586642      -1.99989708       2.53116079
O       -0.63883206      -0.26343963       2.45605874
O       -0.30501181       3.57822378       1.74364179
H        3.56586840      -2.42549564       2.01657686
O       -0.52868870       2.59785295      -0.73636564
H        2.12565224      -2.53502327       1.56306135
O        2.44447859      -0.42123069      -0.48169000
H        0.53714221      -4.51789463      -2.04288556
O       -2.92025240       1.83307317      -1.72790407
H        2.35014991      -1.37638603      -1.96497999
H        2.92707182       0.40486934      -0.45178434
H       -2.20864276      -2.06632517      -0.84515666
O       -3.71031326       0.68052192       0.61465272
H        4.10550221       2.55847671      -0.19234673
H        0.95735654      -0.05258837       3.19738258
H       -1.82096933      -0.78169064      -2.80475997
H        0.80565221      -3.75777659       0.18125348
O       -2.20660937       1.92037240       2.54307910
H       -3.46542257       1.09860707      -0.21085633
O        3.23960313       2.15124883      -0.21716757
H       -2.09130337      -2.68416996       1.61859787
H       -0.48019160      -0.12374325       1.52249034
O        1.97307758      -1.85489810      -2.70327160
O        2.82015599      -1.89795073       1.73049781
H        2.77692652      -0.92051725       0.26424776
H        2.82855801       2.41091261       0.60736167
H       -1.40844851       2.62970899      -1.11218437
H        1.12594273       1.11602564      -3.22957722
H        2.27648301       2.40258113      -1.71475509
H        0.82499292       2.79557028      -1.88977288
H       -0.61731864      -0.57848922      -0.63827454
H       -4.20839680      -2.30788057       0.57509910
O        1.59617669       2.50981993      -2.37952196
H       -2.66041869       2.30939169       3.29071065
O       -1.46612107      -1.82657845      -1.39960674
H       -3.22444690       1.16471148       1.28228001
H        2.32094924      -0.57020631       2.79169575
H        0.14670287      -3.53807782       1.52639787
H        2.66952498       3.03334176       2.91443224
O       -1.84999623       0.02252297      -3.32305501
H       -3.44554721      -1.00182131       0.63963525
O        0.99647810      -3.70239655       1.11760297
H       -2.58862729       1.17054111      -2.33396338
O        0.46122198      -3.69766207      -1.55535453
H        0.58141831       3.29467240       1.96740974
H        2.07222022       1.68559617       2.56989774
H       -0.35038929       3.49484223       0.79116069
H       -1.27709655       0.40894666       2.69427494
H       -0.40939925       1.68283071      -0.48193259
O        0.80927322       0.38117206      -3.75487949
H       -0.96681731      -2.63753646      -1.49591192
63
Properties=species:S:1:pos:R:3 TIP5P=T (H2O)21=T energy=T -935.3950=T kJ/mol=T pbc="F F F"
O       -2.15561286      -1.08073441      -1.27677139
H       -4.60543651      -0.97593683       1.09779648
O       -0.11866182       0.11375172      -0.08825247
H        0.57567685      -1.13106596      -3.50800610
H       -0.79238492      -3.59170625       1.15809293
H        0.53952069       0.89674809      -4.69365863
O       -0.10621370      -3.94790655       0.59371518
O       -2.18493634       1.04664548      -2.93194037
H        0.09263769       1.77756134      -0.25195221
O        1.97476455       2.21174021      -2.39115267
H        1.48489995      -1.73770736      -2.46053546
O        0.87532628      -1.97117227      -3.16063968
H        1.87919098       2.65411630       2.11847173
H        1.38925670      -3.25304537       0.93571516
H        0.65379457      -0.33193239      -0.43597167
H       -2.46633176       1.89911439       1.92572710
H       -1.30899706       0.95935232      -3.30789532
H       -0.69115373       0.39815348       2.90191501
H       -0.28043079      -2.96532349      -2.41922733
H        2.34003597      -1.74845565      -0.30924796
O        3.18271991       1.45112701       2.03156517
H        0.96732047       1.15957470      -3.26544131
H        2.66921551       1.81124480      -1.86811050
O       -1.09505966       2.12618752       3.05030775
H        2.83596071      -3.65080489       1.13753209
H        4.64286653       1.19004697      -0.68229566
H       -0.62473557       3.06144079      -0.61101261
O        0.36111548       0.63648355      -3.78996300
H       -0.32444742       2.59800705       2.73443602
H       -1.29109436       2.52657372       3.89735741
H        2.80896627      -0.44522507      -0.92046774
H        2.37578581      -1.63191127       2.27991516
O       -3.16983266       1.68352184       1.31348681
O       -2.38250495       2.85600993      -1.02007904
H       -0.85294183      -0.26859649      -0.56874654
H       -1.32084403      -1.90438230       2.49719555
O       -0.34328214      -0.39634453       2.49695810
O        0.24080866       2.71162607      -0.39960139
O        2.26916957      -0.87690891       2.85856553
O        1.10961066       3.22197640       2.07957606
H       -2.34538087       0.20767815      -2.49994128
O        2.08651868      -1.07290846      -0.93821284
H       -3.46098263       0.01406105       1.14279318
O        3.69727476       1.07292841      -0.59080091
H        3.51021044       1.32769060       0.31271168
O       -1.86984717      -2.59068494       2.11796466
H       -0.27887094      -0.18281745       1.56610407
H       -2.36949720       2.21526797      -1.73107298
H       -2.85150132      -1.15823860      -0.62411207
O       -3.66377190      -0.89998955       0.94374582
H        1.32197863      -0.78613090       2.96258725
H        3.88127807       1.64113614       2.65777988
H        2.83965041       0.60054909       2.30552202
H       -2.59992817      -2.11951336       1.71645387
O       -0.97579640      -3.40826070      -1.93290937
H        0.90842164       3.28991820       1.14622793
O        2.26821103      -2.88708782       1.03443807
H       -1.23668569      -4.13641532      -2.49678832
H       -1.96291410      -1.98336274      -1.53046636
H       -2.91370721       3.57752668      -1.35693149
H       -2.91992583       2.11813626       0.49807972
H       -0.43233864      -3.81161103      -0.29583408
H        1.41254958       2.64721122      -1.75044122
63
Properties=species:S:1:pos:R:3 TIP5P=T (H2O)21=T energy=T -935.3950=T kJ/mol=T pbc="F F F"
O        0.28245421       1.23275137       3.58695297
O       -0.31953084      -1.39482836      -3.47013697
O       -2.21792153       0.53399294       3.10955936
H       -1.79277363       4.48371337       0.22345556
H        0.21033084       0.84962912       0.59750963
H       -1.93786493      -1.06329739       2.29131595
H        2.53244908      -1.08244454       3.94216774
O       -1.49983060      -1.61708253       1.64503444
H       -4.64905649      -0.06497753      -1.27355639
H       -2.05375701       2.99502653       0.31060108
H        3.89590925       3.10642630       0.21279519
H        0.96295982      -3.28212339       1.48173223
H       -2.40551791      -2.90550084      -0.91387255
H        0.59611189      -1.11656555      -3.45013590
O        0.70420483       2.35978044       1.17487475
H       -0.96204128       0.38584010      -1.22044139
H        2.60830111       2.32449774      -1.61130034
H        0.25118610      -3.67953873      -0.76159603
H        3.41923061       1.68667347       0.43409718
H       -2.70159424       0.60569077       3.93245180
H       -1.33313018       0.82906891       3.32474833
H       -1.01449920      -1.00386436       1.09308449
H       -0.77491427       2.19669442      -2.48622766
H        0.91334409       0.51496683       3.53222499
H       -2.35025532       0.48455020      -1.81627131
H       -0.75832196      -2.66338400      -2.46394783
O        1.06099094      -3.73891392      -0.25472076
H        1.55005787       2.65136589       0.83466540
O        2.07574614      -0.76506730       3.16311322
O        2.11711103      -1.26547764      -0.54894748
O       -3.18277491       1.89113460       0.94915030
O       -1.03308822      -3.40473539      -1.92437998
O        2.18614448      -0.41962034      -3.09754912
O       -1.42367672       0.58243201      -2.03559547
O        2.27006945       2.14547043      -2.48867164